Program Version,EnergyPlus, Version 9.4.0-998c4b761e, YMD=2020.10.27 09:22
1,5,Environment Title[],Latitude[deg],Longitude[deg],Time Zone[],Elevation[m]
2,8,Day of Simulation[],Month[],Day of Month[],DST Indicator[1=yes 0=no],Hour[],StartMinute[],EndMinute[],DayType
3,5,Cumulative Day of Simulation[],Month[],Day of Month[],DST Indicator[1=yes 0=no],DayType  ! When Daily Report Variables Requested
4,2,Cumulative Days of Simulation[],Month[]  ! When Monthly Report Variables Requested
5,1,Cumulative Days of Simulation[] ! When Run Period Report Variables Requested
6,1,Calendar Year of Simulation[] ! When Annual Report Variables Requested
8,1,Electricity:Facility [J] !TimeStep
985,1,NaturalGas:Facility [J] !TimeStep
End of Data Dictionary
1,CHICAGO OHARE INTL AP ANN CLG .4% CONDNS DB=>MWB 1 HVAC Sizing Pass 1,  41.98, -87.92,  -6.00, 201.00
2,1, 7,21, 0, 1, 0.00,15.00,SummerDesignDay
8,95522480.14362148
985,0.0
2,1, 7,21, 0, 1,15.00,30.00,SummerDesignDay
8,95422430.0946578
985,0.0
2,1, 7,21, 0, 1,30.00,45.00,SummerDesignDay
8,95308545.11831534
985,0.0
2,1, 7,21, 0, 1,45.00,60.00,SummerDesignDay
8,95183749.13604318
985,0.0
2,1, 7,21, 0, 2, 0.00,15.00,SummerDesignDay
8,95094716.14961189
985,0.0
2,1, 7,21, 0, 2,15.00,30.00,SummerDesignDay
8,94999700.12701655
985,0.0
2,1, 7,21, 0, 2,30.00,45.00,SummerDesignDay
8,94898982.79342592
985,1688686.4516790698
2,1, 7,21, 0, 2,45.00,60.00,SummerDesignDay
8,94793317.47235517
985,0.0
2,1, 7,21, 0, 3, 0.00,15.00,SummerDesignDay
8,94706037.5296023
985,0.0
2,1, 7,21, 0, 3,15.00,30.00,SummerDesignDay
8,94616082.2920579
985,0.0
2,1, 7,21, 0, 3,30.00,45.00,SummerDesignDay
8,94523448.86024797
985,0.0
2,1, 7,21, 0, 3,45.00,60.00,SummerDesignDay
8,94428446.87968123
985,0.0
2,1, 7,21, 0, 4, 0.00,15.00,SummerDesignDay
8,94331379.75581731
985,809156.6918094017
2,1, 7,21, 0, 4,15.00,30.00,SummerDesignDay
8,94232534.8021319
985,879147.1551264713
2,1, 7,21, 0, 4,30.00,45.00,SummerDesignDay
8,94132178.23603271
985,0.0
2,1, 7,21, 0, 4,45.00,60.00,SummerDesignDay
8,94030551.46195679
985,0.0
2,1, 7,21, 0, 5, 0.00,15.00,SummerDesignDay
8,93950314.39953994
985,0.0
2,1, 7,21, 0, 5,15.00,30.00,SummerDesignDay
8,93870179.06465805
985,0.0
2,1, 7,21, 0, 5,30.00,45.00,SummerDesignDay
8,87859696.16570091
985,0.0
2,1, 7,21, 0, 5,45.00,60.00,SummerDesignDay
8,88634858.26345256
985,1688646.5803970618
2,1, 7,21, 0, 6, 0.00,15.00,SummerDesignDay
8,96030599.25703292
985,0.0
2,1, 7,21, 0, 6,15.00,30.00,SummerDesignDay
8,92521768.16621807
985,0.0
2,1, 7,21, 0, 6,30.00,45.00,SummerDesignDay
8,96180910.4995419
985,0.0
2,1, 7,21, 0, 6,45.00,60.00,SummerDesignDay
8,96431710.58561835
985,0.0
2,1, 7,21, 0, 7, 0.00,15.00,SummerDesignDay
8,102942589.47500019
985,4178112.484126173
2,1, 7,21, 0, 7,15.00,30.00,SummerDesignDay
8,101064456.21837899
985,1598397.7854801277
2,1, 7,21, 0, 7,30.00,45.00,SummerDesignDay
8,103155742.22284746
985,2343135.77029653
2,1, 7,21, 0, 7,45.00,60.00,SummerDesignDay
8,103416569.2413612
985,2495795.84090056
2,1, 7,21, 0, 8, 0.00,15.00,SummerDesignDay
8,111032678.36556112
985,1572826.196183352
2,1, 7,21, 0, 8,15.00,30.00,SummerDesignDay
8,107101925.99611214
985,1287862.6294217834
2,1, 7,21, 0, 8,30.00,45.00,SummerDesignDay
8,110351232.32610776
985,2852873.4841016058
2,1, 7,21, 0, 8,45.00,60.00,SummerDesignDay
8,110430864.01187708
985,2853775.2820029535
2,1, 7,21, 0, 9, 0.00,15.00,SummerDesignDay
8,111214580.45212655
985,2052537.685518568
2,1, 7,21, 0, 9,15.00,30.00,SummerDesignDay
8,112164236.77453493
985,1956498.8660186174
2,1, 7,21, 0, 9,30.00,45.00,SummerDesignDay
8,113163662.94424285
985,3219584.992395685
2,1, 7,21, 0, 9,45.00,60.00,SummerDesignDay
8,114212430.37596894
985,3541216.3817807177
2,1, 7,21, 0,10, 0.00,15.00,SummerDesignDay
8,115150424.73401502
985,2060903.591802671
2,1, 7,21, 0,10,15.00,30.00,SummerDesignDay
8,116051560.28218588
985,2064678.8027745814
2,1, 7,21, 0,10,30.00,45.00,SummerDesignDay
8,116913291.56550789
985,3611420.871195166
2,1, 7,21, 0,10,45.00,60.00,SummerDesignDay
8,117727862.8579302
985,3261138.264036408
2,1, 7,21, 0,11, 0.00,15.00,SummerDesignDay
8,118408543.52616312
985,2100301.765796711
2,1, 7,21, 0,11,15.00,30.00,SummerDesignDay
8,119032818.85583949
985,2372487.1437278029
2,1, 7,21, 0,11,30.00,45.00,SummerDesignDay
8,119606772.23556227
985,3889690.5310184794
2,1, 7,21, 0,11,45.00,60.00,SummerDesignDay
8,120141779.79425836
985,2744729.9757796006
2,1, 7,21, 0,12, 0.00,15.00,SummerDesignDay
8,120441298.3853044
985,2335780.3056631705
2,1, 7,21, 0,12,15.00,30.00,SummerDesignDay
8,120735979.24428423
985,3560087.519988253
2,1, 7,21, 0,12,30.00,45.00,SummerDesignDay
8,121065762.22341664
985,3598581.1566230866
2,1, 7,21, 0,12,45.00,60.00,SummerDesignDay
8,121492046.17990586
985,2351373.25945202
2,1, 7,21, 0,13, 0.00,15.00,SummerDesignDay
8,122025156.31610354
985,3988320.8880285478
2,1, 7,21, 0,13,15.00,30.00,SummerDesignDay
8,122668012.65903913
985,3420849.354252652
2,1, 7,21, 0,13,30.00,45.00,SummerDesignDay
8,123371293.68525154
985,2603389.1612894155
2,1, 7,21, 0,13,45.00,60.00,SummerDesignDay
8,124122073.18753323
985,4811755.991326835
2,1, 7,21, 0,14, 0.00,15.00,SummerDesignDay
8,124765814.58398624
985,2539444.444697285
2,1, 7,21, 0,14,15.00,30.00,SummerDesignDay
8,125344697.7354443
985,3552093.6597217
2,1, 7,21, 0,14,30.00,45.00,SummerDesignDay
8,125905187.60262963
985,3790909.0379862266
2,1, 7,21, 0,14,45.00,60.00,SummerDesignDay
8,126406626.14172815
985,2534026.6647592086
2,1, 7,21, 0,15, 0.00,15.00,SummerDesignDay
8,126597211.13004399
985,2984242.1957532295
2,1, 7,21, 0,15,15.00,30.00,SummerDesignDay
8,126709074.15668835
985,3565490.192172761
2,1, 7,21, 0,15,30.00,45.00,SummerDesignDay
8,126744029.50990266
985,2122111.065464073
2,1, 7,21, 0,15,45.00,60.00,SummerDesignDay
8,126706061.71421978
985,1917220.431150588
2,1, 7,21, 0,16, 0.00,15.00,SummerDesignDay
8,126259983.36986597
985,3054229.9887175515
2,1, 7,21, 0,16,15.00,30.00,SummerDesignDay
8,125770835.64439225
985,3507814.7728955068
2,1, 7,21, 0,16,30.00,45.00,SummerDesignDay
8,125235706.52926865
985,1999804.5070671945
2,1, 7,21, 0,16,45.00,60.00,SummerDesignDay
8,124660796.40608424
985,1877079.217199373
2,1, 7,21, 0,17, 0.00,15.00,SummerDesignDay
8,123962793.00001659
985,3790458.5807059609
2,1, 7,21, 0,17,15.00,30.00,SummerDesignDay
8,123297084.92339453
985,3271649.9556067336
2,1, 7,21, 0,17,30.00,45.00,SummerDesignDay
8,122638555.23437965
985,2263531.6122457536
2,1, 7,21, 0,17,45.00,60.00,SummerDesignDay
8,121941537.15777661
985,3042067.282149535
2,1, 7,21, 0,18, 0.00,15.00,SummerDesignDay
8,121082658.42235397
985,3200583.501729799
2,1, 7,21, 0,18,15.00,30.00,SummerDesignDay
8,120152430.16269343
985,2195409.0594744158
2,1, 7,21, 0,18,30.00,45.00,SummerDesignDay
8,118965210.3042529
985,1567141.5843796028
2,1, 7,21, 0,18,45.00,60.00,SummerDesignDay
8,117741871.73815079
985,2537408.6886226718
2,1, 7,21, 0,19, 0.00,15.00,SummerDesignDay
8,116170898.4587003
985,2941561.4843986376
2,1, 7,21, 0,19,15.00,30.00,SummerDesignDay
8,114408885.55515763
985,2109444.8012421696
2,1, 7,21, 0,19,30.00,45.00,SummerDesignDay
8,112285088.40280906
985,1301127.5060623389
2,1, 7,21, 0,19,45.00,60.00,SummerDesignDay
8,110008531.53518611
985,2457070.3438609836
2,1, 7,21, 0,20, 0.00,15.00,SummerDesignDay
8,107979065.38470651
985,2719554.5828954319
2,1, 7,21, 0,20,15.00,30.00,SummerDesignDay
8,114336172.36085522
985,1714864.5436810784
2,1, 7,21, 0,20,30.00,45.00,SummerDesignDay
8,113432525.96431153
985,998019.717167278
2,1, 7,21, 0,20,45.00,60.00,SummerDesignDay
8,112667227.89419863
985,2706266.1910739585
2,1, 7,21, 0,21, 0.00,15.00,SummerDesignDay
8,112036501.18785909
985,2773560.7797620526
2,1, 7,21, 0,21,15.00,30.00,SummerDesignDay
8,111455001.11414263
985,1265637.5238795998
2,1, 7,21, 0,21,30.00,45.00,SummerDesignDay
8,110908601.077194
985,1517098.9412985799
2,1, 7,21, 0,21,45.00,60.00,SummerDesignDay
8,110389590.97011371
985,2775796.1111257539
2,1, 7,21, 0,22, 0.00,15.00,SummerDesignDay
8,109891813.1683988
985,2210909.0051132675
2,1, 7,21, 0,22,15.00,30.00,SummerDesignDay
8,109411669.03978545
985,346371.0316699678
2,1, 7,21, 0,22,30.00,45.00,SummerDesignDay
8,108946851.79331436
985,2435214.5032279056
2,1, 7,21, 0,22,45.00,60.00,SummerDesignDay
8,108495547.6863061
985,2487897.9496756845
2,1, 7,21, 0,23, 0.00,15.00,SummerDesignDay
8,90976637.89216767
985,274472.3841712852
2,1, 7,21, 0,23,15.00,30.00,SummerDesignDay
8,94020955.42294133
985,4594437.4628776819
2,1, 7,21, 0,23,30.00,45.00,SummerDesignDay
8,96865572.9250686
985,2404704.8378750479
2,1, 7,21, 0,23,45.00,60.00,SummerDesignDay
8,96967534.47082031
985,368548.27621768836
2,1, 7,21, 0,24, 0.00,15.00,SummerDesignDay
8,97179585.64213798
985,2035017.589247092
2,1, 7,21, 0,24,15.00,30.00,SummerDesignDay
8,97301963.72015827
985,2403571.4116733286
2,1, 7,21, 0,24,30.00,45.00,SummerDesignDay
8,97265512.47661127
985,445095.83643027135
2,1, 7,21, 0,24,45.00,60.00,SummerDesignDay
8,97192088.159087
985,1959072.6233029124
1,CHICAGO OHARE INTL AP ANN CLG .4% CONDNS WB=>MDB 1 HVAC Sizing Pass 1,  41.98, -87.92,  -6.00, 201.00
2,1, 7,21, 0, 1, 0.00,15.00,SummerDesignDay
8,93911533.31654893
985,0.0
2,1, 7,21, 0, 1,15.00,30.00,SummerDesignDay
8,93782233.52715811
985,0.0
2,1, 7,21, 0, 1,30.00,45.00,SummerDesignDay
8,93634973.54788669
985,0.0
2,1, 7,21, 0, 1,45.00,60.00,SummerDesignDay
8,93473206.01004493
985,0.0
2,1, 7,21, 0, 2, 0.00,15.00,SummerDesignDay
8,93350279.45699552
985,0.0
2,1, 7,21, 0, 2,15.00,30.00,SummerDesignDay
8,93221220.54406911
985,0.0
2,1, 7,21, 0, 2,30.00,45.00,SummerDesignDay
8,93086994.17956084
985,1688686.4516790698
2,1, 7,21, 0, 2,45.00,60.00,SummerDesignDay
8,92948437.55335802
985,0.0
2,1, 7,21, 0, 3, 0.00,15.00,SummerDesignDay
8,92830853.97468801
985,0.0
2,1, 7,21, 0, 3,15.00,30.00,SummerDesignDay
8,92711707.63748299
985,0.0
2,1, 7,21, 0, 3,30.00,45.00,SummerDesignDay
8,92591154.75032252
985,0.0
2,1, 7,21, 0, 3,45.00,60.00,SummerDesignDay
8,92469397.07152766
985,0.0
2,1, 7,21, 0, 4, 0.00,15.00,SummerDesignDay
8,92346623.64495455
985,809156.6918094017
2,1, 7,21, 0, 4,15.00,30.00,SummerDesignDay
8,92223030.9022069
985,879147.1551264713
2,1, 7,21, 0, 4,30.00,45.00,SummerDesignDay
8,92098814.9327336
985,0.0
2,1, 7,21, 0, 4,45.00,60.00,SummerDesignDay
8,91974160.46800259
985,0.0
2,1, 7,21, 0, 5, 0.00,15.00,SummerDesignDay
8,91872836.26802095
985,0.0
2,1, 7,21, 0, 5,15.00,30.00,SummerDesignDay
8,91772742.99744344
985,0.0
2,1, 7,21, 0, 5,30.00,45.00,SummerDesignDay
8,85765721.34732168
985,0.0
2,1, 7,21, 0, 5,45.00,60.00,SummerDesignDay
8,86538940.1874877
985,1688646.5803970618
2,1, 7,21, 0, 6, 0.00,15.00,SummerDesignDay
8,93998094.2869534
985,0.0
2,1, 7,21, 0, 6,15.00,30.00,SummerDesignDay
8,90256965.5296913
985,0.0
2,1, 7,21, 0, 6,30.00,45.00,SummerDesignDay
8,94011159.92350063
985,0.0
2,1, 7,21, 0, 6,45.00,60.00,SummerDesignDay
8,94229819.57025872
985,0.0
2,1, 7,21, 0, 7, 0.00,15.00,SummerDesignDay
8,100776924.16584033
985,4178113.024534779
2,1, 7,21, 0, 7,15.00,30.00,SummerDesignDay
8,98785453.31655175
985,1598397.550002848
2,1, 7,21, 0, 7,30.00,45.00,SummerDesignDay
8,100912996.47418386
985,2343137.2788869377
2,1, 7,21, 0, 7,45.00,60.00,SummerDesignDay
8,101172278.1870931
985,2495795.8319000594
2,1, 7,21, 0, 8, 0.00,15.00,SummerDesignDay
8,108848185.3854931
985,1572824.7609089206
2,1, 7,21, 0, 8,15.00,30.00,SummerDesignDay
8,104907834.66507079
985,1287864.0561295429
2,1, 7,21, 0, 8,30.00,45.00,SummerDesignDay
8,108350370.19137636
985,2852873.482387655
2,1, 7,21, 0, 8,45.00,60.00,SummerDesignDay
8,108601022.35109706
985,2853775.291599114
2,1, 7,21, 0, 9, 0.00,15.00,SummerDesignDay
8,109527883.89160386
985,2052536.529495616
2,1, 7,21, 0, 9,15.00,30.00,SummerDesignDay
8,110589950.11298062
985,1956498.8610447325
2,1, 7,21, 0, 9,30.00,45.00,SummerDesignDay
8,111663180.92314244
985,3219586.169089557
2,1, 7,21, 0, 9,45.00,60.00,SummerDesignDay
8,112750490.56808613
985,3541215.2074059646
2,1, 7,21, 0,10, 0.00,15.00,SummerDesignDay
8,113700853.6367605
985,2060903.592569599
2,1, 7,21, 0,10,15.00,30.00,SummerDesignDay
8,114597266.29461044
985,2064678.7962894254
2,1, 7,21, 0,10,30.00,45.00,SummerDesignDay
8,115443621.04723209
985,3611422.1205967867
2,1, 7,21, 0,10,45.00,60.00,SummerDesignDay
8,116236411.63141187
985,3261137.0192204315
2,1, 7,21, 0,11, 0.00,15.00,SummerDesignDay
8,116891799.76213707
985,2100301.7652621625
2,1, 7,21, 0,11,15.00,30.00,SummerDesignDay
8,117489314.63763212
985,2372488.4142055555
2,1, 7,21, 0,11,30.00,45.00,SummerDesignDay
8,118036801.15873464
985,3889690.531874205
2,1, 7,21, 0,11,45.00,60.00,SummerDesignDay
8,118546630.4442497
985,2744728.7053971386
2,1, 7,21, 0,12, 0.00,15.00,SummerDesignDay
8,118824454.34031
985,2335780.302935233
2,1, 7,21, 0,12,15.00,30.00,SummerDesignDay
8,119101089.23665214
985,3560089.01216602
2,1, 7,21, 0,12,30.00,45.00,SummerDesignDay
8,119416806.47975725
985,3598579.667017852
2,1, 7,21, 0,12,45.00,60.00,SummerDesignDay
8,119832198.42320483
985,2351373.2579830049
2,1, 7,21, 0,13, 0.00,15.00,SummerDesignDay
8,120357194.42253019
985,3988322.741853583
2,1, 7,21, 0,13,15.00,30.00,SummerDesignDay
8,120990889.4711952
985,3420847.517233593
2,1, 7,21, 0,13,30.00,45.00,SummerDesignDay
8,121681955.354489
985,2603389.1578200438
2,1, 7,21, 0,13,45.00,60.00,SummerDesignDay
8,122398558.42046537
985,4811755.991326835
2,1, 7,21, 0,14, 0.00,15.00,SummerDesignDay
8,122978370.2877532
985,2539444.4446249699
2,1, 7,21, 0,14,15.00,30.00,SummerDesignDay
8,123530130.95020314
985,3552095.353306358
2,1, 7,21, 0,14,30.00,45.00,SummerDesignDay
8,124039593.99380452
985,3790907.346884991
2,1, 7,21, 0,14,45.00,60.00,SummerDesignDay
8,124495476.34401028
985,2534026.6625299316
2,1, 7,21, 0,15, 0.00,15.00,SummerDesignDay
8,124658041.43803014
985,2984243.3618442525
2,1, 7,21, 0,15,15.00,30.00,SummerDesignDay
8,124744746.47908759
985,3565490.1966774945
2,1, 7,21, 0,15,30.00,45.00,SummerDesignDay
8,124758304.15884727
985,2122109.879640934
2,1, 7,21, 0,15,45.00,60.00,SummerDesignDay
8,124702686.6644086
985,1917220.4252867457
2,1, 7,21, 0,16, 0.00,15.00,SummerDesignDay
8,124262819.68425305
985,3054231.154625558
2,1, 7,21, 0,16,15.00,30.00,SummerDesignDay
8,123785530.05775441
985,3507814.7793198877
2,1, 7,21, 0,16,30.00,45.00,SummerDesignDay
8,123268272.1459733
985,1999803.3420800733
2,1, 7,21, 0,16,45.00,60.00,SummerDesignDay
8,122715752.53947965
985,1877079.2107841194
2,1, 7,21, 0,17, 0.00,15.00,SummerDesignDay
8,122050618.02445406
985,3790459.9716324328
2,1, 7,21, 0,17,15.00,30.00,SummerDesignDay
8,121421693.0827764
985,3271648.5817925499
2,1, 7,21, 0,17,30.00,45.00,SummerDesignDay
8,120802272.75134892
985,2263531.610775252
2,1, 7,21, 0,17,45.00,60.00,SummerDesignDay
8,120145560.30403137
985,3042068.6563933847
2,1, 7,21, 0,18, 0.00,15.00,SummerDesignDay
8,119334774.56317285
985,3200583.5067131838
2,1, 7,21, 0,18,15.00,30.00,SummerDesignDay
8,118426500.81961592
985,2195407.3107823429
2,1, 7,21, 0,18,30.00,45.00,SummerDesignDay
8,117260232.32513152
985,1567141.5754893579
2,1, 7,21, 0,18,45.00,60.00,SummerDesignDay
8,116062026.35053703
985,2537410.4393546755
2,1, 7,21, 0,19, 0.00,15.00,SummerDesignDay
8,114519334.79361263
985,2941561.488658926
2,1, 7,21, 0,19,15.00,30.00,SummerDesignDay
8,112786446.14257297
985,2109442.913677374
2,1, 7,21, 0,19,30.00,45.00,SummerDesignDay
8,110689113.63502975
985,1301127.494348565
2,1, 7,21, 0,19,45.00,60.00,SummerDesignDay
8,108440622.8499971
985,2457072.2376291577
2,1, 7,21, 0,20, 0.00,15.00,SummerDesignDay
8,106445415.49147421
985,2719554.5882935558
2,1, 7,21, 0,20,15.00,30.00,SummerDesignDay
8,112848642.05385632
985,1714862.4539406605
2,1, 7,21, 0,20,30.00,45.00,SummerDesignDay
8,111996487.4472744
985,998021.8062935075
2,1, 7,21, 0,20,45.00,60.00,SummerDesignDay
8,111277975.65187222
985,2706266.185540552
2,1, 7,21, 0,21, 0.00,15.00,SummerDesignDay
8,110686433.96188364
985,2773560.7902921487
2,1, 7,21, 0,21,15.00,30.00,SummerDesignDay
8,110137901.39149978
985,1265635.5004365163
2,1, 7,21, 0,21,30.00,45.00,SummerDesignDay
8,109619442.11652848
985,1517100.957972334
2,1, 7,21, 0,21,45.00,60.00,SummerDesignDay
8,109124495.68605547
985,2775796.108086583
2,1, 7,21, 0,22, 0.00,15.00,SummerDesignDay
8,108647647.47553109
985,2210906.646162047
2,1, 7,21, 0,22,15.00,30.00,SummerDesignDay
8,108185934.03050372
985,346371.001508318
2,1, 7,21, 0,22,30.00,45.00,SummerDesignDay
8,107737573.91208886
985,2435216.876304741
2,1, 7,21, 0,22,45.00,60.00,SummerDesignDay
8,107301156.37686126
985,2487897.9596704037
2,1, 7,21, 0,23, 0.00,15.00,SummerDesignDay
8,89815841.68204558
985,274155.4494302837
2,1, 7,21, 0,23,15.00,30.00,SummerDesignDay
8,92087767.86825311
985,4684654.874884808
2,1, 7,21, 0,23,30.00,45.00,SummerDesignDay
8,93994695.42540452
985,2406479.113693012
2,1, 7,21, 0,23,45.00,60.00,SummerDesignDay
8,95339262.57746943
985,369000.7404388563
2,1, 7,21, 0,24, 0.00,15.00,SummerDesignDay
8,95618858.86812786
985,2033888.970816453
2,1, 7,21, 0,24,15.00,30.00,SummerDesignDay
8,95715784.90670724
985,2403029.047518401
2,1, 7,21, 0,24,30.00,45.00,SummerDesignDay
8,95699922.25428504
985,443076.6686317253
2,1, 7,21, 0,24,45.00,60.00,SummerDesignDay
8,95610483.34382712
985,1960996.0330200955
1,CHICAGO OHARE INTL AP ANN HTG 99.6% CONDNS DB 1 HVAC Sizing Pass 1,  41.98, -87.92,  -6.00, 201.00
2,1, 1,21, 0, 1, 0.00,15.00,WinterDesignDay
8,45943717.32647753
985,134995935.89271946
2,1, 1,21, 0, 1,15.00,30.00,WinterDesignDay
8,45943717.32647753
985,135919510.90665133
2,1, 1,21, 0, 1,30.00,45.00,WinterDesignDay
8,45943717.32647753
985,136753875.2561237
2,1, 1,21, 0, 1,45.00,60.00,WinterDesignDay
8,45943717.32647753
985,137502927.4776858
2,1, 1,21, 0, 2, 0.00,15.00,WinterDesignDay
8,45943717.32647753
985,138213754.8441861
2,1, 1,21, 0, 2,15.00,30.00,WinterDesignDay
8,45943717.32647753
985,138857457.8856686
2,1, 1,21, 0, 2,30.00,45.00,WinterDesignDay
8,45943717.32647753
985,141151840.17528475
2,1, 1,21, 0, 2,45.00,60.00,WinterDesignDay
8,45943717.32647753
985,140030661.4358178
2,1, 1,21, 0, 3, 0.00,15.00,WinterDesignDay
8,45943717.32647753
985,140562556.23165763
2,1, 1,21, 0, 3,15.00,30.00,WinterDesignDay
8,45943717.32647753
985,141062113.58445887
2,1, 1,21, 0, 3,30.00,45.00,WinterDesignDay
8,45943717.32647753
985,141532378.49906145
2,1, 1,21, 0, 3,45.00,60.00,WinterDesignDay
8,45943717.32647753
985,141976085.11541418
2,1, 1,21, 0, 4, 0.00,15.00,WinterDesignDay
8,45943717.32647753
985,143204837.61715997
2,1, 1,21, 0, 4,15.00,30.00,WinterDesignDay
8,45943717.32647753
985,143672501.2370233
2,1, 1,21, 0, 4,30.00,45.00,WinterDesignDay
8,45943717.32647753
985,143171059.56274007
2,1, 1,21, 0, 4,45.00,60.00,WinterDesignDay
8,45943717.32647753
985,143530543.65753273
2,1, 1,21, 0, 5, 0.00,15.00,WinterDesignDay
8,45943717.32647753
985,143873366.26342894
2,1, 1,21, 0, 5,15.00,30.00,WinterDesignDay
8,45943717.32647753
985,144200920.98129643
2,1, 1,21, 0, 5,30.00,45.00,WinterDesignDay
8,45943717.32647753
985,144514453.16891373
2,1, 1,21, 0, 5,45.00,60.00,WinterDesignDay
8,45943717.32647753
985,146503722.70741589
2,1, 1,21, 0, 6, 0.00,15.00,WinterDesignDay
8,45943717.326477538
985,193466793.42987389
2,1, 1,21, 0, 6,15.00,30.00,WinterDesignDay
8,45943717.32647753
985,152523902.0292003
2,1, 1,21, 0, 6,30.00,45.00,WinterDesignDay
8,45943717.32647753
985,173909270.8222007
2,1, 1,21, 0, 6,45.00,60.00,WinterDesignDay
8,45943717.32647753
985,167284639.31080479
2,1, 1,21, 0, 7, 0.00,15.00,WinterDesignDay
8,47766111.53490229
985,232680977.81838883
2,1, 1,21, 0, 7,15.00,30.00,WinterDesignDay
8,47472707.7524856
985,204727181.4014292
2,1, 1,21, 0, 7,30.00,45.00,WinterDesignDay
8,47472707.7524856
985,202992637.96461848
2,1, 1,21, 0, 7,45.00,60.00,WinterDesignDay
8,47472707.7524856
985,196026432.7934971
2,1, 1,21, 0, 8, 0.00,15.00,WinterDesignDay
8,47472707.7524856
985,238762405.54760809
2,1, 1,21, 0, 8,15.00,30.00,WinterDesignDay
8,39759091.357842
985,222695049.40186889
2,1, 1,21, 0, 8,30.00,45.00,WinterDesignDay
8,39759091.357842
985,221625523.75626988
2,1, 1,21, 0, 8,45.00,60.00,WinterDesignDay
8,39759091.357842
985,213242882.35253478
2,1, 1,21, 0, 9, 0.00,15.00,WinterDesignDay
8,39759091.357842
985,212731967.3254144
2,1, 1,21, 0, 9,15.00,30.00,WinterDesignDay
8,39759091.357842
985,212407026.19758124
2,1, 1,21, 0, 9,30.00,45.00,WinterDesignDay
8,39759091.357842
985,211053053.70050163
2,1, 1,21, 0, 9,45.00,60.00,WinterDesignDay
8,39759091.357842
985,208830871.56410633
2,1, 1,21, 0,10, 0.00,15.00,WinterDesignDay
8,39759091.357842
985,208886821.06577499
2,1, 1,21, 0,10,15.00,30.00,WinterDesignDay
8,39759091.357842
985,209275619.0919569
2,1, 1,21, 0,10,30.00,45.00,WinterDesignDay
8,39759091.357842
985,208021315.04204587
2,1, 1,21, 0,10,45.00,60.00,WinterDesignDay
8,39759091.357842
985,206385333.6986961
2,1, 1,21, 0,11, 0.00,15.00,WinterDesignDay
8,39759091.357842
985,206155749.57194848
2,1, 1,21, 0,11,15.00,30.00,WinterDesignDay
8,39759091.357842
985,206704378.31199915
2,1, 1,21, 0,11,30.00,45.00,WinterDesignDay
8,39759091.357842
985,205769473.52279697
2,1, 1,21, 0,11,45.00,60.00,WinterDesignDay
8,39759091.357842
985,204159076.76980458
2,1, 1,21, 0,12, 0.00,15.00,WinterDesignDay
8,39759091.357842
985,204310142.80428726
2,1, 1,21, 0,12,15.00,30.00,WinterDesignDay
8,39759091.357842
985,205167455.810929
2,1, 1,21, 0,12,30.00,45.00,WinterDesignDay
8,39759091.357842
985,204145669.17012344
2,1, 1,21, 0,12,45.00,60.00,WinterDesignDay
8,39759091.357842
985,202807869.2936421
2,1, 1,21, 0,13, 0.00,15.00,WinterDesignDay
8,39759091.357842
985,202741017.55806313
2,1, 1,21, 0,13,15.00,30.00,WinterDesignDay
8,39759091.357842
985,203526873.69207505
2,1, 1,21, 0,13,30.00,45.00,WinterDesignDay
8,39759091.357842
985,202742893.51415084
2,1, 1,21, 0,13,45.00,60.00,WinterDesignDay
8,39759091.357842
985,201350412.67281626
2,1, 1,21, 0,14, 0.00,15.00,WinterDesignDay
8,39759091.357842
985,201425727.94201923
2,1, 1,21, 0,14,15.00,30.00,WinterDesignDay
8,39759091.357842
985,202309941.6819638
2,1, 1,21, 0,14,30.00,45.00,WinterDesignDay
8,39759091.357842
985,201681948.73002694
2,1, 1,21, 0,14,45.00,60.00,WinterDesignDay
8,39759091.357842
985,200241912.78252257
2,1, 1,21, 0,15, 0.00,15.00,WinterDesignDay
8,39759091.357842
985,200224259.58131043
2,1, 1,21, 0,15,15.00,30.00,WinterDesignDay
8,39759091.357842
985,201114156.62632019
2,1, 1,21, 0,15,30.00,45.00,WinterDesignDay
8,39759091.357842
985,200641730.23912216
2,1, 1,21, 0,15,45.00,60.00,WinterDesignDay
8,39759091.357842
985,199074711.42063234
2,1, 1,21, 0,16, 0.00,15.00,WinterDesignDay
8,39759091.357842
985,199399059.97086904
2,1, 1,21, 0,16,15.00,30.00,WinterDesignDay
8,39759091.357842
985,200202548.55326505
2,1, 1,21, 0,16,30.00,45.00,WinterDesignDay
8,39759091.357842
985,199618112.50092054
2,1, 1,21, 0,16,45.00,60.00,WinterDesignDay
8,39759091.357842
985,198162253.51579363
2,1, 1,21, 0,17, 0.00,15.00,WinterDesignDay
8,39759091.357842
985,198991292.8042345
2,1, 1,21, 0,17,15.00,30.00,WinterDesignDay
8,39759091.357842
985,199567026.03883086
2,1, 1,21, 0,17,30.00,45.00,WinterDesignDay
8,39759091.357842
985,198754209.46129064
2,1, 1,21, 0,17,45.00,60.00,WinterDesignDay
8,47472707.7524856
985,197606209.40500946
2,1, 1,21, 0,18, 0.00,15.00,WinterDesignDay
8,47472707.7524856
985,198296825.8379262
2,1, 1,21, 0,18,15.00,30.00,WinterDesignDay
8,47472707.7524856
985,198632225.860277
2,1, 1,21, 0,18,30.00,45.00,WinterDesignDay
8,47472707.7524856
985,197198031.32502134
2,1, 1,21, 0,18,45.00,60.00,WinterDesignDay
8,47472707.7524856
985,197124510.34208856
2,1, 1,21, 0,19, 0.00,15.00,WinterDesignDay
8,47472707.7524856
985,198232191.7335547
2,1, 1,21, 0,19,15.00,30.00,WinterDesignDay
8,47472707.7524856
985,197535039.40540309
2,1, 1,21, 0,19,30.00,45.00,WinterDesignDay
8,47472707.7524856
985,196024916.35428117
2,1, 1,21, 0,19,45.00,60.00,WinterDesignDay
8,47472707.7524856
985,197868953.59272159
2,1, 1,21, 0,20, 0.00,15.00,WinterDesignDay
8,47469833.72112113
985,195214733.7714897
2,1, 1,21, 0,20,15.00,30.00,WinterDesignDay
8,47469833.72112113
985,195103991.4130562
2,1, 1,21, 0,20,30.00,45.00,WinterDesignDay
8,47469833.72112113
985,195015188.95857729
2,1, 1,21, 0,20,45.00,60.00,WinterDesignDay
8,47469833.72112113
985,196562194.72802053
2,1, 1,21, 0,21, 0.00,15.00,WinterDesignDay
8,47469833.72112113
985,194790826.81670875
2,1, 1,21, 0,21,15.00,30.00,WinterDesignDay
8,47469833.72112113
985,194692408.94511725
2,1, 1,21, 0,21,30.00,45.00,WinterDesignDay
8,47469833.72112113
985,194596800.0620861
2,1, 1,21, 0,21,45.00,60.00,WinterDesignDay
8,47469833.72112113
985,194503902.82466836
2,1, 1,21, 0,22, 0.00,15.00,WinterDesignDay
8,47469833.72112113
985,194413624.84054715
2,1, 1,21, 0,22,15.00,30.00,WinterDesignDay
8,47469833.72112113
985,196014488.96868316
2,1, 1,21, 0,22,30.00,45.00,WinterDesignDay
8,47469833.72112113
985,194240579.5392854
2,1, 1,21, 0,22,45.00,60.00,WinterDesignDay
8,47469833.72112113
985,194157648.906173
2,1, 1,21, 0,23, 0.00,15.00,WinterDesignDay
8,47469833.72112113
985,68232946.22728601
2,1, 1,21, 0,23,15.00,30.00,WinterDesignDay
8,47689573.5701304
985,98485895.88908619
2,1, 1,21, 0,23,30.00,45.00,WinterDesignDay
8,47469833.72112113
985,115691343.80800444
2,1, 1,21, 0,23,45.00,60.00,WinterDesignDay
8,47469833.72112113
985,124963955.60922274
2,1, 1,21, 0,24, 0.00,15.00,WinterDesignDay
8,47469833.72112113
985,131081419.25606238
2,1, 1,21, 0,24,15.00,30.00,WinterDesignDay
8,47469833.72112113
985,131276666.1571159
2,1, 1,21, 0,24,30.00,45.00,WinterDesignDay
8,47469833.72112113
985,132755582.49975169
2,1, 1,21, 0,24,45.00,60.00,WinterDesignDay
8,47469833.72112113
985,133961953.56740254
1,CHICAGO OHARE INTL AP ANN CLG .4% CONDNS DB=>MWB 1,  41.98, -87.92,  -6.00, 201.00
2,1, 7,21, 0, 1, 0.00,15.00,SummerDesignDay
8,95522480.14362148
985,0.0
2,1, 7,21, 0, 1,15.00,30.00,SummerDesignDay
8,95422430.0946578
985,0.0
2,1, 7,21, 0, 1,30.00,45.00,SummerDesignDay
8,95308545.11831534
985,0.0
2,1, 7,21, 0, 1,45.00,60.00,SummerDesignDay
8,95183749.13604318
985,0.0
2,1, 7,21, 0, 2, 0.00,15.00,SummerDesignDay
8,95094716.14961189
985,0.0
2,1, 7,21, 0, 2,15.00,30.00,SummerDesignDay
8,94999700.12701655
985,0.0
2,1, 7,21, 0, 2,30.00,45.00,SummerDesignDay
8,94898982.79342592
985,1688686.4516790698
2,1, 7,21, 0, 2,45.00,60.00,SummerDesignDay
8,94793317.47235517
985,0.0
2,1, 7,21, 0, 3, 0.00,15.00,SummerDesignDay
8,94706037.5296023
985,0.0
2,1, 7,21, 0, 3,15.00,30.00,SummerDesignDay
8,94616082.2920579
985,0.0
2,1, 7,21, 0, 3,30.00,45.00,SummerDesignDay
8,94523448.86024797
985,0.0
2,1, 7,21, 0, 3,45.00,60.00,SummerDesignDay
8,94428446.87968123
985,0.0
2,1, 7,21, 0, 4, 0.00,15.00,SummerDesignDay
8,94331379.75581731
985,809156.6918094017
2,1, 7,21, 0, 4,15.00,30.00,SummerDesignDay
8,94232534.8021319
985,879147.1551264713
2,1, 7,21, 0, 4,30.00,45.00,SummerDesignDay
8,94132178.23603271
985,0.0
2,1, 7,21, 0, 4,45.00,60.00,SummerDesignDay
8,94030551.46195679
985,0.0
2,1, 7,21, 0, 5, 0.00,15.00,SummerDesignDay
8,93950314.39953994
985,0.0
2,1, 7,21, 0, 5,15.00,30.00,SummerDesignDay
8,93870179.06465805
985,0.0
2,1, 7,21, 0, 5,30.00,45.00,SummerDesignDay
8,87859696.16570091
985,0.0
2,1, 7,21, 0, 5,45.00,60.00,SummerDesignDay
8,88634858.26345256
985,1688646.5803970618
2,1, 7,21, 0, 6, 0.00,15.00,SummerDesignDay
8,96030599.25703292
985,0.0
2,1, 7,21, 0, 6,15.00,30.00,SummerDesignDay
8,92521768.16621807
985,0.0
2,1, 7,21, 0, 6,30.00,45.00,SummerDesignDay
8,96180910.4995419
985,0.0
2,1, 7,21, 0, 6,45.00,60.00,SummerDesignDay
8,96431710.58561835
985,0.0
2,1, 7,21, 0, 7, 0.00,15.00,SummerDesignDay
8,102942589.47500019
985,4178112.484126173
2,1, 7,21, 0, 7,15.00,30.00,SummerDesignDay
8,101064456.21837899
985,1598397.7854801277
2,1, 7,21, 0, 7,30.00,45.00,SummerDesignDay
8,103155742.22284746
985,2343135.77029653
2,1, 7,21, 0, 7,45.00,60.00,SummerDesignDay
8,103416569.2413612
985,2495795.84090056
2,1, 7,21, 0, 8, 0.00,15.00,SummerDesignDay
8,111032678.36556112
985,1572826.196183352
2,1, 7,21, 0, 8,15.00,30.00,SummerDesignDay
8,107101925.99611214
985,1287862.6294217834
2,1, 7,21, 0, 8,30.00,45.00,SummerDesignDay
8,110351232.32610776
985,2852873.4841016058
2,1, 7,21, 0, 8,45.00,60.00,SummerDesignDay
8,110430864.01187708
985,2853775.2820029535
2,1, 7,21, 0, 9, 0.00,15.00,SummerDesignDay
8,111214580.45212655
985,2052537.685518568
2,1, 7,21, 0, 9,15.00,30.00,SummerDesignDay
8,112164236.77453493
985,1956498.8660186174
2,1, 7,21, 0, 9,30.00,45.00,SummerDesignDay
8,113163662.94424285
985,3219584.992395685
2,1, 7,21, 0, 9,45.00,60.00,SummerDesignDay
8,114212430.37596894
985,3541216.3817807177
2,1, 7,21, 0,10, 0.00,15.00,SummerDesignDay
8,115150424.73401502
985,2060903.591802671
2,1, 7,21, 0,10,15.00,30.00,SummerDesignDay
8,116051560.28218588
985,2064678.8027745814
2,1, 7,21, 0,10,30.00,45.00,SummerDesignDay
8,116913291.56550789
985,3611420.871195166
2,1, 7,21, 0,10,45.00,60.00,SummerDesignDay
8,117727862.8579302
985,3261138.264036408
2,1, 7,21, 0,11, 0.00,15.00,SummerDesignDay
8,118408543.52616312
985,2100301.765796711
2,1, 7,21, 0,11,15.00,30.00,SummerDesignDay
8,119032818.85583949
985,2372487.1437278029
2,1, 7,21, 0,11,30.00,45.00,SummerDesignDay
8,119606772.23556227
985,3889690.5310184794
2,1, 7,21, 0,11,45.00,60.00,SummerDesignDay
8,120141779.79425836
985,2744729.9757796006
2,1, 7,21, 0,12, 0.00,15.00,SummerDesignDay
8,120441298.3853044
985,2335780.3056631705
2,1, 7,21, 0,12,15.00,30.00,SummerDesignDay
8,120735979.24428423
985,3560087.519988253
2,1, 7,21, 0,12,30.00,45.00,SummerDesignDay
8,121065762.22341664
985,3598581.1566230866
2,1, 7,21, 0,12,45.00,60.00,SummerDesignDay
8,121492046.17990586
985,2351373.25945202
2,1, 7,21, 0,13, 0.00,15.00,SummerDesignDay
8,122025156.31610354
985,3988320.8880285478
2,1, 7,21, 0,13,15.00,30.00,SummerDesignDay
8,122668012.65903913
985,3420849.354252652
2,1, 7,21, 0,13,30.00,45.00,SummerDesignDay
8,123371293.68525154
985,2603389.1612894155
2,1, 7,21, 0,13,45.00,60.00,SummerDesignDay
8,124122073.18753323
985,4811755.991326835
2,1, 7,21, 0,14, 0.00,15.00,SummerDesignDay
8,124765814.58398624
985,2539444.444697285
2,1, 7,21, 0,14,15.00,30.00,SummerDesignDay
8,125344697.7354443
985,3552093.6597217
2,1, 7,21, 0,14,30.00,45.00,SummerDesignDay
8,125905187.60262963
985,3790909.0379862266